ITEM: TIMESTEP
0
ITEM: NUMBER OF ATOMS
48
ITEM: BOX BOUNDS
0 8.58999196077 -1.11404503923
0 10.701548 0
-0.5 0.5 0
ITEM: ATOMS
1 1 1 2.0 6.98860451168 2.07279097327 0
2 1 2 1.4 7.26561777147 1.11192487755 0
3 2 1 2.0 5.67160022851 0.60259602673 0
4 2 2 1.4 5.39458696872 1.56346212245 0
5 3 1 2.0 6.71009325187 4.74817797327 0
6 3 2 1.4 6.98710651166 3.78731187755 0
7 4 1 2.0 5.3930889687 3.27798302673 0
8 4 2 1.4 5.11607570891 4.23884912245 0
9 5 1 2.0 6.43158199206 7.42356497327 0
10 5 2 1.4 6.70859525185 6.46269887755 0
11 6 1 2.0 5.1145777089 5.95337002673 0
12 6 2 1.4 4.8375644491 6.91423612245 0
13 7 1 2.0 6.15307073225 10.0989519733 0
14 7 2 1.4 6.43008399205 9.13808587755 0
15 8 1 2.0 4.83606644909 8.62875702673 0
16 8 2 1.4 4.5590531893 9.58962312245 0
17 9 1 2.0 0.519246511679 2.07279097327 0
18 9 2 1.4 0.796259771471 1.11192487755 0
19 10 1 2.0 8.90627922851 0.60259602673 0
20 10 2 1.4 8.62926596872 1.56346212245 0
21 11 1 2.0 0.240735251871 4.74817797327 0
22 11 2 1.4 0.517748511663 3.78731187755 0
23 12 1 2.0 8.6277679687 3.27798302673 0
24 12 2 1.4 8.35075470891 4.23884912245 0
25 13 1 2.0 9.66626099206 7.42356497327 0
26 13 2 1.4 0.239237251854 6.46269887755 0
27 14 1 2.0 8.3492567089 5.95337002673 0
28 14 2 1.4 8.0722434491 6.91423612245 0
29 15 1 2.0 9.38774973225 10.0989519733 0
30 15 2 1.4 9.66476299205 9.13808587755 0
31 16 1 2.0 8.07074544909 8.62875702673 0
32 16 2 1.4 7.7937321893 9.58962312245 0
33 17 1 2.0 3.75392551168 2.07279097327 0
34 17 2 1.4 4.03093877147 1.11192487755 0
35 18 1 2.0 2.43692122851 0.60259602673 0
36 18 2 1.4 2.15990796872 1.56346212245 0
37 19 1 2.0 3.47541425187 4.74817797327 0
38 19 2 1.4 3.75242751166 3.78731187755 0
39 20 1 2.0 2.1584099687 3.27798302673 0
40 20 2 1.4 1.88139670891 4.23884912245 0
41 21 1 2.0 3.19690299206 7.42356497327 0
42 21 2 1.4 3.47391625185 6.46269887755 0
43 22 1 2.0 1.8798987089 5.95337002673 0
44 22 2 1.4 1.6028854491 6.91423612245 0
45 23 1 2.0 2.91839173225 10.0989519733 0
46 23 2 1.4 3.19540499205 9.13808587755 0
47 24 1 2.0 1.60138744909 8.62875702673 0
48 24 2 1.4 1.3243741893 9.58962312245 0
