ITEM: TIMESTEP
0
ITEM: NUMBER OF ATOMS
4
ITEM: BOX BOUNDS
0 2.95616774019 -0.278511259808
0 2.675387 0
-0.5 0.5 0
ITEM: ATOMS
1 1 1 2.0 0.552058115877 2.11291786894 0
2 1 2 1.275112 0.829071375669 1.15205177322 0
3 2 1 2.0 2.54315905601 0.548089211486 0
4 2 2 1.275112 2.26614579622 1.5089553072 0
