# Unit cell data for Snowman molecule

8   atoms
2   atom types
1   extra bond per atom
0   extra angle per atom

0 4.327005     xlo xhi
0 3.9783     ylo yhi
0 0 0   xy xz yz


Atoms

1 1 1 1 1 0.940593185581 2.17870116031 0
2 1 1 2 2 1.84029766566 2.61520070043 0
3 2 1 1 1 3.38641311451 1.79959883969 0
4 2 1 2 2 2.48670863443 1.36309929957 0
5 3 1 1 1 3.10409621174 3.78874883968 0
6 3 1 2 2 4.00380069182 3.35224929957 0
7 4 1 1 1 1.22291008835 0.189551160315 0
8 4 1 2 2 0.32320560827 0.626050700431 0

Bond Coeffs

1 500 1.0

Masses

1 1
2 1

Pair Coeffs

1 1 2.0
2 1 1.275112

Atoms
