ITEM: TIMESTEP
0
ITEM: NUMBER OF ATOMS
8
ITEM: BOX BOUNDS
0 4.32700630009 1.30008813665e-06
0 3.9783 0
-0.5 0.5 0
ITEM: ATOMS
1 1 1 2.0 3.10409568558 2.17870116031 0
2 1 2 1.275112 4.00380016566 2.61520070043 0
3 2 1 2.0 1.22291061451 1.79959883969 0
4 2 2 1.275112 0.323206134425 1.36309929957 0
5 3 1 2.0 0.940593711737 3.78874883968 0
6 3 2 1.275112 1.84029819182 3.35224929957 0
7 4 1 2.0 3.38641258835 0.189551160315 0
8 4 2 1.275112 2.48670810827 0.626050700431 0
