ITEM: TIMESTEP
0
ITEM: NUMBER OF ATOMS
4
ITEM: BOX BOUNDS
0 6.44941373754 2.39131273754
0 3.183253 0
-0.5 0.5 0
ITEM: ATOMS
1 1 1 2.0 3.9100238245 0.898101217565 0
2 1 2 1.275112 3.09739452332 0.315320281999 0
3 2 1 2.0 2.06001020877 1.64701405257 0
4 2 2 1.275112 2.87263950996 2.22979498814 0
