# Unit cell data for Snowman molecule

8   atoms
2   atom types
1   extra bond per atom
0   extra angle per atom

0 3.167313     xlo xhi
0 6.126751     ylo yhi
0 0 0   xy xz yz


Atoms

1 1 1 1 1 1.9729361519 5.20577561821 0
2 1 1 2 2 1.97293668704 3.56821961821 0
3 2 1 1 1 1.19437885029 0.920975381789 0
4 2 1 2 2 1.19437831515 2.55853138179 0
5 3 1 1 1 0.389279252741 3.98435088179 0
6 3 1 2 2 0.389279787886 5.62190688179 0
7 4 1 1 1 2.77803574945 2.14240011821 0
8 4 1 2 2 2.77803521431 0.504844118211 0

Bond Coeffs

1 500 1.637556

Masses

1 1
2 1

Pair Coeffs

1 1 2.0
2 1 1.275112

Atoms
