# Unit cell data for Snowman molecule

4   atoms
2   atom types
1   extra bond per atom
0   extra angle per atom

0 4.058101     xlo xhi
0 3.183253     ylo yhi
0 0 0   xy xz yz


Atoms

1 1 1 1 1 1.8809733245 0.898101217565 0
2 1 1 2 2 1.06834402332 0.315320281999 0
3 2 1 1 1 4.08906070877 1.64701405257 0
4 2 1 2 2 4.90169000996 2.22979498814 0

Bond Coeffs

1 500 1.0

Masses

1 1
2 1

Pair Coeffs

1 1 2.0
2 1 1.275112

Atoms
