# Unit cell data for Snowman molecule

4   atoms
2   atom types
1   extra bond per atom
0   extra angle per atom

0 3.234679     xlo xhi
0 2.675387     ylo yhi
0 0 0   xy xz yz


Atoms

1 1 1 1 1 2.50519588478 0.581756273068 0
2 1 1 2 2 2.78220914457 1.54262236879 0
3 2 1 1 1 1.00799437503 2.09363072693 0
4 2 1 2 2 0.730981115242 1.13276463121 0

Bond Coeffs

1 500 1.0

Masses

1 1
2 1

Pair Coeffs

1 1 2.0
2 1 1.275112

Atoms
