# Unit cell data for Snowman molecule

4   atoms
2   atom types
1   extra bond per atom
0   extra angle per atom

0 3.234679     xlo xhi
0 2.675387     ylo yhi
0 0 0   xy xz yz


Atoms

1 1 1 1 1 2.16939761588 2.11291786894 0
2 1 1 2 2 2.44641087567 1.15205177322 0
3 2 1 1 1 0.925819556011 0.548089211486 0
4 2 1 2 2 0.64880629622 1.5089553072 0

Bond Coeffs

1 500 1.0

Masses

1 1
2 1

Pair Coeffs

1 1 2.0
2 1 1.275112

Atoms
