ITEM: TIMESTEP
0
ITEM: NUMBER OF ATOMS
8
ITEM: BOX BOUNDS
0 3.16731500219 2.00219095878e-06
0 6.126751 0
-0.5 0.5 0
ITEM: ATOMS
1 1 1 2.0 0.389279651896 5.20577561821 0
2 1 2 1.275112 0.389280187041 3.56821961821 0
3 2 1 2.0 2.77803535029 0.920975381789 0
4 2 2 1.275112 2.77803481515 2.55853138179 0
5 3 1 2.0 1.97293575274 3.98435088179 0
6 3 2 1.275112 1.97293628789 5.62190688179 0
7 4 1 2.0 1.19437924945 2.14240011821 0
8 4 2 1.275112 1.19437871431 0.504844118211 0
