ITEM: TIMESTEP
0
ITEM: NUMBER OF ATOMS
2
ITEM: BOX BOUNDS
0 2.95616774019 -0.278511259808
0 2.675387 0
-0.5 0.5 0
ITEM: ATOMS
1 1 1 2.0 0.56162851249 1.347337071 0
2 1 2 1.275112 0.838641772281 0.386470975285 0
