ITEM: TIMESTEP
0
ITEM: NUMBER OF ATOMS
4
ITEM: BOX BOUNDS
0 3.51319025981 0.278511259808
0 2.675387 0
-0.5 0.5 0
ITEM: ATOMS
1 1 1 2.0 0.918065701773 0.730055035946 0
2 1 2 1.4 1.19507896156 1.69092113166 0
3 2 1 2.0 2.59512455804 1.94533196405 0
4 2 2 1.4 2.31811129824 0.984465868337 0
