# Unit cell data for Snowman molecule

2   atoms
2   atom types
1   extra bond per atom
0   extra angle per atom

0 3.234679     xlo xhi
0 2.675387     ylo yhi
0 0 0   xy xz yz


Atoms

1 1 1 1 1 2.3901110258 1.347337071 0
2 1 1 2 2 2.6671242856 0.386470975285 0

Bond Coeffs

1 500 1.0

Masses

1 1
2 1

Pair Coeffs

1 1 2.0
2 1 1.275112

Atoms
