ITEM: TIMESTEP
0
ITEM: NUMBER OF ATOMS
4
ITEM: BOX BOUNDS
0 3.51319025981 0.278511259808
0 2.675387 0
-0.5 0.5 0
ITEM: ATOMS
1 1 1 2.0 0.887856384775 0.581756273068 0
2 1 2 1.275112 1.16486964457 1.54262236879 0
3 2 1 2.0 2.62533387503 2.09363072693 0
4 2 2 1.275112 2.34832061524 1.13276463121 0
