# Unit cell data for Snowman molecule

4   atoms
2   atom types
1   extra bond per atom
0   extra angle per atom

0 4.152241     xlo xhi
0 2.000398     ylo yhi
0 0 0   xy xz yz


Atoms

1 1 1 1 1 2.94210669652 0.0507556707468 0
2 1 1 2 2 2.36225227015 -0.763964431014 0
3 2 1 1 1 1.2101349572 1.94964232925 0
4 2 1 2 2 1.78998938357 2.76436243101 0

Bond Coeffs

1 500 1.0

Masses

1 1
2 1

Pair Coeffs

1 1 2.0
2 1 1.275112

Atoms
