ITEM: TIMESTEP
0
ITEM: NUMBER OF ATOMS
48
ITEM: BOX BOUNDS
0 8.58999196077 -1.11404503923
0 10.701548 0
-0.5 0.5 0
ITEM: ATOMS
1 1 1 2.0 7.02141611588 2.11291786894 0
2 1 2 1.275112 7.29842937567 1.15205177322 0
3 2 1 2.0 5.63878862431 0.562469131062 0
4 2 2 1.275112 5.36177536452 1.52333522678 0
5 3 1 2.0 6.74290485607 4.78830486894 0
6 3 2 1.275112 7.01991811586 3.82743877322 0
7 4 1 2.0 5.36027736451 3.23785613106 0
8 4 2 1.275112 5.08326410471 4.19872222678 0
9 5 1 2.0 6.46439359626 7.46369186894 0
10 5 2 1.275112 6.74140685605 6.50282577322 0
11 6 1 2.0 5.0817661047 5.91324313106 0
12 6 2 1.275112 4.80475284491 6.87410922678 0
13 7 1 2.0 6.18588233645 10.1390788689 0
14 7 2 1.275112 6.46289559624 9.17821277322 0
15 8 1 2.0 4.80325484489 8.58863013106 0
16 8 2 1.275112 4.5262415851 9.54949622678 0
17 9 1 2.0 0.552058115877 2.11291786894 0
18 9 2 1.275112 0.829071375669 1.15205177322 0
19 10 1 2.0 8.87346762431 0.562469131062 0
20 10 2 1.275112 8.59645436452 1.52333522678 0
21 11 1 2.0 0.273546856069 4.78830486894 0
22 11 2 1.275112 0.550560115861 3.82743877322 0
23 12 1 2.0 8.59495636451 3.23785613106 0
24 12 2 1.275112 8.31794310471 4.19872222678 0
25 13 1 2.0 9.69907259626 7.46369186894 0
26 13 2 1.275112 0.272048856052 6.50282577322 0
27 14 1 2.0 8.3164451047 5.91324313106 0
28 14 2 1.275112 8.03943184491 6.87410922678 0
29 15 1 2.0 9.42056133645 10.1390788689 0
30 15 2 1.275112 9.69757459624 9.17821277322 0
31 16 1 2.0 8.03793384489 8.58863013106 0
32 16 2 1.275112 7.7609205851 9.54949622678 0
33 17 1 2.0 3.78673711588 2.11291786894 0
34 17 2 1.275112 4.06375037567 1.15205177322 0
35 18 1 2.0 2.40410962431 0.562469131062 0
36 18 2 1.275112 2.12709636452 1.52333522678 0
37 19 1 2.0 3.50822585607 4.78830486894 0
38 19 2 1.275112 3.78523911586 3.82743877322 0
39 20 1 2.0 2.12559836451 3.23785613106 0
40 20 2 1.275112 1.84858510471 4.19872222678 0
41 21 1 2.0 3.22971459626 7.46369186894 0
42 21 2 1.275112 3.50672785605 6.50282577322 0
43 22 1 2.0 1.8470871047 5.91324313106 0
44 22 2 1.275112 1.57007384491 6.87410922678 0
45 23 1 2.0 2.95120333645 10.1390788689 0
46 23 2 1.275112 3.22821659624 9.17821277322 0
47 24 1 2.0 1.56857584489 8.58863013106 0
48 24 2 1.275112 1.2915625851 9.54949622678 0
