ITEM: TIMESTEP
0
ITEM: NUMBER OF ATOMS
48
ITEM: BOX BOUNDS
0 8.58999196077 -1.11404503923
0 10.701548 0
-0.5 0.5 0
ITEM: ATOMS
1 1 1 2.0 6.98949220343 2.11291786894 0
2 1 2 1.275112 7.26650546323 1.15205177322 0
3 2 1 2.0 5.67220950505 0.548089211486 0
4 2 2 1.275112 5.39519624526 1.5089553072 0
5 3 1 2.0 6.71247791192 4.77392494936 0
6 3 2 1.275112 6.98949117171 3.81305885364 0
7 4 1 2.0 5.39519521354 3.20909629191 0
8 4 2 1.275112 5.11818195375 4.16996238763 0
9 5 1 2.0 6.43546362041 7.43493202979 0
10 5 2 1.275112 6.7124768802 6.47406593407 0
11 6 1 2.0 5.11818092203 5.87010337233 0
12 6 2 1.275112 4.84116766224 6.83096946805 0
13 7 1 2.0 6.1584493289 10.0959391102 0
14 7 2 1.275112 6.43546258869 9.13507301449 0
15 8 1 2.0 4.84116663052 8.53111045276 0
16 8 2 1.275112 4.56415337072 9.49197654848 0
17 9 1 2.0 0.520134203434 2.11291786894 0
18 9 2 1.275112 0.797147463225 1.15205177322 0
19 10 1 2.0 8.90688850505 0.548089211486 0
20 10 2 1.275112 8.62987524526 1.5089553072 0
21 11 1 2.0 0.243119911921 4.77392494936 0
22 11 2 1.275112 0.520133171713 3.81305885364 0
23 12 1 2.0 8.62987421354 3.20909629191 0
24 12 2 1.275112 8.35286095375 4.16996238763 0
25 13 1 2.0 9.67014262041 7.43493202979 0
26 13 2 1.275112 0.2431188802 6.47406593407 0
27 14 1 2.0 8.35285992203 5.87010337233 0
28 14 2 1.275112 8.07584666224 6.83096946805 0
29 15 1 2.0 9.3931283289 10.0959391102 0
30 15 2 1.275112 9.67014158869 9.13507301449 0
31 16 1 2.0 8.07584563052 8.53111045276 0
32 16 2 1.275112 7.79883237072 9.49197654848 0
33 17 1 2.0 3.75481320343 2.11291786894 0
34 17 2 1.275112 4.03182646323 1.15205177322 0
35 18 1 2.0 2.43753050505 0.548089211486 0
36 18 2 1.275112 2.16051724526 1.5089553072 0
37 19 1 2.0 3.47779891192 4.77392494936 0
38 19 2 1.275112 3.75481217171 3.81305885364 0
39 20 1 2.0 2.16051621354 3.20909629191 0
40 20 2 1.275112 1.88350295375 4.16996238763 0
41 21 1 2.0 3.20078462041 7.43493202979 0
42 21 2 1.275112 3.4777978802 6.47406593407 0
43 22 1 2.0 1.88350192203 5.87010337233 0
44 22 2 1.275112 1.60648866224 6.83096946805 0
45 23 1 2.0 2.9237703289 10.0959391102 0
46 23 2 1.275112 3.20078358869 9.13507301449 0
47 24 1 2.0 1.60648763052 8.53111045276 0
48 24 2 1.275112 1.32947437072 9.49197654848 0
